 Q-Chem 5.3, Q-Chem, Inc., Pleasanton, CA (2020)
 Q-Chem 5.3.1 for Intel X86 EM64T Linux

User input:
--------------------------------------------------------------

$molecule
read
$end

$rem
METHOD         CAM-B3LYP
BASIS          def2-TZVPPD
CIS_N_ROOTS    20
MEM_TOTAL      100000

$end

--------------------------------------------------------------

             Standard Nuclear Orientation (Angstroms)
    I     Atom           X                Y                Z
 ----------------------------------------------------------------
    1      C       1.0141002418    -0.9533719243     0.0165386582
    2      C       1.3279424099     0.4088624162     0.0094771936
    3      C      -0.3066374409    -1.3812839045     0.0134489491
    4      C      -3.8550547297    -1.1432431174    -0.0038181577
    5      C       3.8516788334     1.1369931052     0.0155678054
    6      C      -1.3307294054    -0.4171759936     0.0026218573
    7      C      -1.0168953682     0.9450649999    -0.0045540727
    8      C       0.3038392293     1.3729996217    -0.0013619298
    9      H       1.8316300935    -1.6608959603     0.0254254388
   10      O       0.6939113691     2.6607792354    -0.0080848044
   11      O      -0.6966784122    -2.6690875147     0.0200797122
   12      C      -2.6935155281    -0.8234588087    -0.0006911832
   13      C      -5.2578604141    -1.5137582399    -0.0066649491
   14      S      -5.7642135880     1.2714406266     0.0008291230
   15      H      -7.6501801095     2.8163485024     0.0022083864
   16      C      -6.2251843989    -0.3992287467    -0.0058169482
   17      O      -5.6178078503    -2.6704887452    -0.0097281317
   18      H      -9.3417352436     0.8103810597    -0.0087742967
   19      C      -7.5872567133    -0.5373786470    -0.0093551471
   20      C      -7.4050330490     1.7646351205    -0.0008461305
   21      H      -8.0598674694    -1.5097521333    -0.0137718665
   22      C      -8.2656097848     0.7038993293    -0.0066316325
   23      C       2.6906235988     0.8154599117     0.0127554495
   24      C       5.2527906337     1.5140890400     0.0154573828
   25      H      -1.8344312956     1.6525681751    -0.0135517413
   26      O       5.6067569272     2.6726168943     0.0266131166
   27      C       6.2257169974     0.4046418427     0.0005191297
   28      C       7.4158345046    -1.7533642279    -0.0277657883
   29      S       5.7727174663    -1.2681626270    -0.0171854399
   30      C       8.2713471586    -0.6885326854    -0.0183974181
   31      C       7.5871077756     0.5493740888    -0.0023177467
   32      H       7.6661282121    -2.8037909370    -0.0403644509
   33      H       8.0551422311     1.5239236557     0.0072532681
   34      C       0.2963798767    -3.6733704208     0.0231984301
   35      H       0.9231661099    -3.6128203734     0.9197996232
   36      H      -0.2412768571    -4.6188468354     0.0236338442
   37      C      -0.2989942100     3.6652199900    -0.0113681980
   38      H      -0.9279360605     3.6074138313     0.8839113242
   39      H       0.2388164514     4.6106078835    -0.0121442421
   40      H       9.3479632725    -0.7898820511    -0.0230911061
   41      H       0.9254348043    -3.6152132503    -0.8719795641
   42      H      -0.9259137674     3.6045149832    -0.9078660126
 ----------------------------------------------------------------

   15   -1943.7955167691      9.50e-09  Convergence criterion met
 Total energy in the final basis set =    -1943.7955167691

         TDDFT/TDA Excitation Energies
 ---------------------------------------------------

 Excited state   1: excitation energy (eV) =    2.4656
 Total energy for state  1:                 -1943.70490718 au
    Multiplicity: Triplet
    Trans. Mom.:  0.0000 X   0.0000 Y   0.0000 Z
    Strength   :     0.0000000000
    D(  105) --> V(    1) amplitude =  0.8923
    D(  105) --> V(    3) amplitude =  0.3129

 Excited state   2: excitation energy (eV) =    3.1091
 Total energy for state  2:                 -1943.68125990 au
    Multiplicity: Triplet
    Trans. Mom.:  0.0000 X   0.0000 Y   0.0000 Z
    Strength   :     0.0000000000
    D(  102) --> V(    2) amplitude = -0.4585
    D(  103) --> V(    1) amplitude =  0.5493
    D(  103) --> V(    3) amplitude = -0.4150
    D(  104) --> V(    2) amplitude = -0.4498

 Excited state   3: excitation energy (eV) =    3.1100
 Total energy for state  3:                 -1943.68122820 au
    Multiplicity: Triplet
    Trans. Mom.:  0.0000 X   0.0000 Y   0.0000 Z
    Strength   :     0.0000000000
    D(  102) --> V(    1) amplitude = -0.4350
    D(  102) --> V(    3) amplitude =  0.2649
    D(  103) --> V(    2) amplitude =  0.6282
    D(  104) --> V(    1) amplitude = -0.3585
    D(  104) --> V(    3) amplitude =  0.3256

 Excited state   4: excitation energy (eV) =    3.3375
 Total energy for state  4:                 -1943.67286587 au
    Multiplicity: Triplet
    Trans. Mom.:  0.0000 X   0.0000 Y   0.0000 Z
    Strength   :     0.0000000000
    D(   98) --> V(    2) amplitude =  0.5169
    D(   99) --> V(    1) amplitude =  0.6502
    D(   99) --> V(    2) amplitude = -0.2665

 Excited state   5: excitation energy (eV) =    3.3381
 Total energy for state  5:                 -1943.67284356 au
    Multiplicity: Triplet
    Trans. Mom.:  0.0000 X   0.0000 Y   0.0000 Z
    Strength   :     0.0000000000
    D(   98) --> V(    1) amplitude =  0.6325
    D(   98) --> V(    2) amplitude =  0.2827
    D(   99) --> V(    1) amplitude =  0.2197
    D(   99) --> V(    2) amplitude =  0.5000

 Excited state   6: excitation energy (eV) =    3.3415
 Total energy for state  6:                 -1943.67271888 au
    Multiplicity: Triplet
    Trans. Mom.:  0.0000 X   0.0000 Y   0.0000 Z
    Strength   :     0.0000000000
    D(  102) --> V(    1) amplitude = -0.5342
    D(  102) --> V(    3) amplitude = -0.2402
    D(  104) --> V(    1) amplitude =  0.5839

 Excited state   7: excitation energy (eV) =    3.5418
 Total energy for state  7:                 -1943.66535905 au
    Multiplicity: Singlet
    Trans. Mom.:  3.4145 X  -0.2569 Y   0.0063 Z
    Strength   :     1.0173678598
    D(  105) --> V(    1) amplitude =  0.9423

 Excited state   8: excitation energy (eV) =    3.6677
 Total energy for state  8:                 -1943.66073022 au
    Multiplicity: Triplet
    Trans. Mom.:  0.0000 X   0.0000 Y   0.0000 Z
    Strength   :     0.0000000000
    D(   97) --> V(    1) amplitude = -0.5374
    D(  101) --> V(    1) amplitude = -0.2403
    D(  102) --> V(    2) amplitude = -0.2395
    D(  104) --> V(    2) amplitude =  0.2430
    D(  105) --> V(    2) amplitude =  0.5758

 Excited state   9: excitation energy (eV) =    3.8166
 Total energy for state  9:                 -1943.65526065 au
    Multiplicity: Singlet
    Trans. Mom.:  0.0100 X  -0.0023 Y  -0.0011 Z
    Strength   :     0.0000099144
    D(   98) --> V(    2) amplitude =  0.5609
    D(   99) --> V(    1) amplitude =  0.7125

 Excited state  10: excitation energy (eV) =    3.8176
 Total energy for state 10:                 -1943.65522434 au
    Multiplicity: Singlet
    Trans. Mom.: -0.0164 X   0.0044 Y   0.0052 Z
    Strength   :     0.0000294669
    D(   98) --> V(    1) amplitude =  0.7113
    D(   99) --> V(    2) amplitude =  0.5620

 Excited state  11: excitation energy (eV) =    3.9027
 Total energy for state 11:                 -1943.65209702 au
    Multiplicity: Triplet
    Trans. Mom.:  0.0000 X   0.0000 Y   0.0000 Z
    Strength   :     0.0000000000
    D(  100) --> V(    1) amplitude =  0.5406
    D(  100) --> V(    3) amplitude = -0.4074
    D(  101) --> V(    2) amplitude =  0.6196

 Excited state  12: excitation energy (eV) =    3.9264
 Total energy for state 12:                 -1943.65122314 au
    Multiplicity: Triplet
    Trans. Mom.:  0.0000 X   0.0000 Y   0.0000 Z
    Strength   :     0.0000000000
    D(   97) --> V(    1) amplitude = -0.2460
    D(  100) --> V(    2) amplitude =  0.6169
    D(  101) --> V(    1) amplitude =  0.4917
    D(  101) --> V(    3) amplitude = -0.4245

 Excited state  13: excitation energy (eV) =    4.2113
 Total energy for state 13:                 -1943.64075301 au
    Multiplicity: Triplet
    Trans. Mom.:  0.0000 X   0.0000 Y   0.0000 Z
    Strength   :     0.0000000000
    D(  102) --> V(    7) amplitude =  0.2140
    D(  104) --> V(    7) amplitude = -0.2732
    D(  105) --> V(    7) amplitude =  0.8128

 Excited state  14: excitation energy (eV) =    4.3076
 Total energy for state 14:                 -1943.63721478 au
    Multiplicity: Singlet
    Trans. Mom.:  2.0613 X   0.0801 Y  -0.0074 Z
    Strength   :     0.4490755699
    D(  102) --> V(    1) amplitude = -0.3555
    D(  103) --> V(    2) amplitude = -0.2489
    D(  104) --> V(    1) amplitude =  0.7891

 Excited state  15: excitation energy (eV) =    4.4026
 Total energy for state 15:                 -1943.63372289 au
    Multiplicity: Triplet
    Trans. Mom.:  0.0000 X   0.0000 Y   0.0000 Z
    Strength   :     0.0000000000
    D(   95) --> V(    2) amplitude =  0.4284
    D(   96) --> V(    1) amplitude =  0.7830

 Excited state  16: excitation energy (eV) =    4.4058
 Total energy for state 16:                 -1943.63360682 au
    Multiplicity: Triplet
    Trans. Mom.:  0.0000 X   0.0000 Y   0.0000 Z
    Strength   :     0.0000000000
    D(   95) --> V(    1) amplitude =  0.7881
    D(   96) --> V(    2) amplitude =  0.4320
    D(   99) --> V(    1) amplitude = -0.2151

 Excited state  17: excitation energy (eV) =    4.4380
 Total energy for state 17:                 -1943.63242283 au
    Multiplicity: Triplet
    Trans. Mom.:  0.0000 X   0.0000 Y   0.0000 Z
    Strength   :     0.0000000000
    D(   93) --> V(    1) amplitude = -0.3697
    D(   97) --> V(    2) amplitude =  0.3616
    D(  104) --> V(    3) amplitude =  0.2895
    D(  105) --> V(    3) amplitude =  0.5101

 Excited state  18: excitation energy (eV) =    4.4623
 Total energy for state 18:                 -1943.63152852 au
    Multiplicity: Singlet
    Trans. Mom.: -0.0046 X  -0.0040 Y   0.0077 Z
    Strength   :     0.0000105481
    D(   97) --> V(    1) amplitude = -0.2211
    D(  103) --> V(    1) amplitude = -0.4737
    D(  104) --> V(    2) amplitude =  0.3291
    D(  105) --> V(    2) amplitude =  0.7039

 Excited state  19: excitation energy (eV) =    4.6484
 Total energy for state 19:                 -1943.62469092 au
    Multiplicity: Singlet
    Trans. Mom.:  0.0262 X  -0.0284 Y   0.0350 Z
    Strength   :     0.0003103499
    D(   95) --> V(    2) amplitude =  0.4383
    D(   96) --> V(    1) amplitude =  0.8194

 Excited state  20: excitation energy (eV) =    4.6545
 Total energy for state 20:                 -1943.62446645 au
    Multiplicity: Singlet
    Trans. Mom.: -0.0115 X   0.0091 Y  -0.0008 Z
    Strength   :     0.0000246661
    D(   95) --> V(    1) amplitude =  0.8177
    D(   96) --> V(    2) amplitude =  0.4404

 Excited state  21: excitation energy (eV) =    4.7526
 Total energy for state 21:                 -1943.62086052 au
    Multiplicity: Triplet
    Trans. Mom.:  0.0000 X   0.0000 Y   0.0000 Z
    Strength   :     0.0000000000
    D(   97) --> V(    1) amplitude =  0.3596
    D(  103) --> V(    1) amplitude =  0.4115
    D(  103) --> V(    3) amplitude =  0.2648
    D(  104) --> V(    8) amplitude = -0.3191
    D(  105) --> V(    2) amplitude =  0.5291

 Excited state  22: excitation energy (eV) =    4.8356
 Total energy for state 22:                 -1943.61781124 au
    Multiplicity: Triplet
    Trans. Mom.:  0.0000 X   0.0000 Y   0.0000 Z
    Strength   :     0.0000000000
    D(   97) --> V(    1) amplitude =  0.2625
    D(  102) --> V(    8) amplitude =  0.2835
    D(  103) --> V(    1) amplitude = -0.3271
    D(  103) --> V(    3) amplitude = -0.2897
    D(  103) --> V(   16) amplitude =  0.2601
    D(  104) --> V(    8) amplitude =  0.2338
    D(  105) --> V(    2) amplitude =  0.5274

 Excited state  23: excitation energy (eV) =    4.8470
 Total energy for state 23:                 -1943.61739382 au
    Multiplicity: Singlet
    Trans. Mom.:  0.0028 X   0.0035 Y  -0.0065 Z
    Strength   :     0.0000073991
    D(  103) --> V(    1) amplitude =  0.6295
    D(  104) --> V(    2) amplitude = -0.3334
    D(  105) --> V(    2) amplitude =  0.6221

 Excited state  24: excitation energy (eV) =    4.8868
 Total energy for state 24:                 -1943.61592982 au
    Multiplicity: Triplet
    Trans. Mom.:  0.0000 X   0.0000 Y   0.0000 Z
    Strength   :     0.0000000000
    D(  102) --> V(    1) amplitude =  0.3059
    D(  102) --> V(    3) amplitude =  0.2996
    D(  103) --> V(    8) amplitude = -0.4679
    D(  104) --> V(    1) amplitude =  0.3714
    D(  104) --> V(    3) amplitude =  0.2245
    D(  104) --> V(   16) amplitude = -0.2665

 Excited state  25: excitation energy (eV) =    4.8955
 Total energy for state 25:                 -1943.61560945 au
    Multiplicity: Singlet
    Trans. Mom.:  0.2226 X  -1.5004 Y  -0.0113 Z
    Strength   :     0.2759526248
    D(  102) --> V(    1) amplitude =  0.7528
    D(  103) --> V(    2) amplitude = -0.4224
    D(  104) --> V(    1) amplitude =  0.2970

 Excited state  26: excitation energy (eV) =    4.9626
 Total energy for state 26:                 -1943.61314470 au
    Multiplicity: Singlet
    Trans. Mom.:  0.0205 X   0.0172 Y   0.0014 Z
    Strength   :     0.0000874961
    D(  100) --> V(    2) amplitude =  0.4851
    D(  101) --> V(    1) amplitude =  0.7759
    D(  102) --> V(    2) amplitude =  0.2173

 Excited state  27: excitation energy (eV) =    4.9739
 Total energy for state 27:                 -1943.61272988 au
    Multiplicity: Singlet
    Trans. Mom.:  1.0299 X   0.8433 Y   0.0062 Z
    Strength   :     0.2159208192
    D(  100) --> V(    1) amplitude =  0.7709
    D(  101) --> V(    2) amplitude =  0.5293

 Excited state  28: excitation energy (eV) =    5.3375
 Total energy for state 28:                 -1943.59936847 au
    Multiplicity: Singlet
    Trans. Mom.:  0.9116 X   0.6225 Y   0.0027 Z
    Strength   :     0.1593451904
    D(  102) --> V(    1) amplitude = -0.2209
    D(  105) --> V(    3) amplitude =  0.8766

 Excited state  29: excitation energy (eV) =    5.3715
 Total energy for state 29:                 -1943.59811602 au
    Multiplicity: Triplet
    Trans. Mom.:  0.0000 X   0.0000 Y   0.0000 Z
    Strength   :     0.0000000000
    D(   93) --> V(    1) amplitude =  0.3319
    D(  105) --> V(    1) amplitude = -0.3193
    D(  105) --> V(    3) amplitude =  0.6113
    D(  105) --> V(    7) amplitude =  0.2933

 Excited state  30: excitation energy (eV) =    5.4168
 Total energy for state 30:                 -1943.59645156 au
    Multiplicity: Singlet
    Trans. Mom.: -0.0013 X   0.0017 Y   0.0018 Z
    Strength   :     0.0000010521
    D(   97) --> V(    1) amplitude =  0.7242
    D(  100) --> V(    2) amplitude = -0.2253
    D(  102) --> V(    2) amplitude =  0.3612
    D(  104) --> V(    2) amplitude = -0.2396
    D(  105) --> V(    2) amplitude =  0.2192

 Excited state  31: excitation energy (eV) =    5.4967
 Total energy for state 31:                 -1943.59351519 au
    Multiplicity: Triplet
    Trans. Mom.:  0.0000 X   0.0000 Y   0.0000 Z
    Strength   :     0.0000000000
    D(   94) --> V(    1) amplitude =  0.2387
    D(   97) --> V(    1) amplitude = -0.3402
    D(   97) --> V(    3) amplitude = -0.3332
    D(  102) --> V(    2) amplitude =  0.4876
    D(  104) --> V(    2) amplitude = -0.4644

 Excited state  32: excitation energy (eV) =    5.5430
 Total energy for state 32:                 -1943.59181574 au
    Multiplicity: Triplet
    Trans. Mom.:  0.0000 X   0.0000 Y   0.0000 Z
    Strength   :     0.0000000000
    D(  100) --> V(    8) amplitude =  0.4258
    D(  101) --> V(    1) amplitude =  0.5870
    D(  101) --> V(    3) amplitude =  0.3845
    D(  101) --> V(   16) amplitude = -0.3114

 Excited state  33: excitation energy (eV) =    5.5443
 Total energy for state 33:                 -1943.59176771 au
    Multiplicity: Triplet
    Trans. Mom.:  0.0000 X   0.0000 Y   0.0000 Z
    Strength   :     0.0000000000
    D(  100) --> V(    1) amplitude =  0.5792
    D(  100) --> V(    3) amplitude =  0.3484
    D(  100) --> V(   16) amplitude = -0.2806
    D(  101) --> V(    8) amplitude =  0.4212
    D(  102) --> V(    3) amplitude =  0.2276

 Excited state  34: excitation energy (eV) =    5.6954
 Total energy for state 34:                 -1943.58621444 au
    Multiplicity: Singlet
    Trans. Mom.: -0.0014 X  -0.0021 Y   0.0003 Z
    Strength   :     0.0000009185
    D(  105) --> V(    4) amplitude =  0.6925
    D(  105) --> V(    6) amplitude =  0.6017
    D(  105) --> V(   14) amplitude = -0.2183

 Excited state  35: excitation energy (eV) =    5.7311
 Total energy for state 35:                 -1943.58490387 au
    Multiplicity: Singlet
    Trans. Mom.:  0.0004 X  -0.0001 Y   0.0020 Z
    Strength   :     0.0000005623
    D(   97) --> V(    1) amplitude =  0.3398
    D(  102) --> V(    2) amplitude = -0.2524
    D(  103) --> V(    1) amplitude =  0.3470
    D(  103) --> V(    3) amplitude =  0.3063
    D(  104) --> V(    2) amplitude =  0.6838

 Excited state  36: excitation energy (eV) =    5.7817
 Total energy for state 36:                 -1943.58304291 au
    Multiplicity: Singlet
    Trans. Mom.: -0.4342 X  -0.2793 Y   0.0061 Z
    Strength   :     0.0377583440
    D(  102) --> V(    1) amplitude =  0.3502
    D(  103) --> V(    2) amplitude =  0.3830
    D(  104) --> V(    1) amplitude =  0.2206
    D(  104) --> V(    3) amplitude =  0.4975
    D(  105) --> V(    7) amplitude =  0.5099

 Excited state  37: excitation energy (eV) =    5.9136
 Total energy for state 37:                 -1943.57819530 au
    Multiplicity: Singlet
    Trans. Mom.:  0.0399 X   1.4035 Y   0.0020 Z
    Strength   :     0.2856370074
    D(  102) --> V(    3) amplitude =  0.4554
    D(  103) --> V(    2) amplitude =  0.4619
    D(  104) --> V(    1) amplitude =  0.3143
    D(  105) --> V(    7) amplitude = -0.5073

 Excited state  38: excitation energy (eV) =    5.9176
 Total energy for state 38:                 -1943.57804871 au
    Multiplicity: Singlet
    Trans. Mom.: -0.0013 X   0.0019 Y   0.0037 Z
    Strength   :     0.0000026907
    D(   97) --> V(    1) amplitude = -0.2292
    D(  102) --> V(    2) amplitude =  0.6695
    D(  103) --> V(    1) amplitude =  0.3424
    D(  103) --> V(    3) amplitude =  0.4566

 Excited state  39: excitation energy (eV) =    6.0733
 Total energy for state 39:                 -1943.57232738 au
    Multiplicity: Singlet
    Trans. Mom.:  1.1310 X   0.1216 Y  -0.0035 Z
    Strength   :     0.1925152901
    D(  100) --> V(    1) amplitude = -0.5242
    D(  100) --> V(    3) amplitude = -0.4931
    D(  101) --> V(    2) amplitude =  0.4663
    D(  101) --> V(    8) amplitude = -0.2548

 Excited state  40: excitation energy (eV) =    6.0846
 Total energy for state 40:                 -1943.57191339 au
    Multiplicity: Singlet
    Trans. Mom.:  0.0010 X   0.0025 Y   0.3249 Z
    Strength   :     0.0157397426
    D(  105) --> V(    5) amplitude =  0.8543
    D(  105) --> V(    9) amplitude =  0.3855

 ---------------------------------------------------

                    Orbital Energies (a.u.)
 --------------------------------------------------------------

 Alpha MOs
 -- Occupied --
-88.9745 -88.9745 -19.2480 -19.2480 -19.1943 -19.1943 -10.3651 -10.3650
-10.3343 -10.3343 -10.3113 -10.3113 -10.2977 -10.2977 -10.2934 -10.2934
-10.2892 -10.2892 -10.2775 -10.2775 -10.2767 -10.2767 -10.2690 -10.2690
-10.2670 -10.2670 -10.2610 -10.2610  -8.0515  -8.0515  -6.0148  -6.0148
 -6.0111  -6.0111  -6.0091  -6.0091  -1.1755  -1.1744  -1.1363  -1.1363
 -0.9859  -0.9859  -0.9771  -0.9151  -0.8748  -0.8641  -0.8588  -0.8377
 -0.8337  -0.8336  -0.8251  -0.8208  -0.7789  -0.7688  -0.7379  -0.7224
 -0.6938  -0.6647  -0.6630  -0.6491  -0.6342  -0.6269  -0.6164  -0.6099
 -0.6070  -0.6068  -0.5848  -0.5670  -0.5601  -0.5443  -0.5384  -0.5365
 -0.5345  -0.5187  -0.5115  -0.5111  -0.5073  -0.5063  -0.4953  -0.4900
 -0.4810  -0.4808  -0.4710  -0.4637  -0.4635  -0.4576  -0.4552  -0.4439
 -0.4267  -0.4263  -0.4255  -0.4174  -0.4068  -0.3962  -0.3619  -0.3609
 -0.3544  -0.3400  -0.3398  -0.3280  -0.3266  -0.3173  -0.3131  -0.3108
 -0.2743

          Ground-State Mulliken Net Atomic Charges

     Atom                 Charge (a.u.)
  ----------------------------------------
      1 C                    -0.113716
      2 C                     0.505633
      3 C                     0.368834
      4 C                     0.092269
      5 C                     0.090613
      6 C                     0.504573
      7 C                    -0.115567
      8 C                     0.366849
      9 H                     0.083453
     10 O                    -0.438650
     11 O                    -0.438877
     12 C                    -0.282374
     13 C                     0.176470
     14 S                    -0.177995
     15 H                     0.110148
     16 C                     0.300743
     17 O                    -0.506803
     18 H                     0.067170
     19 C                    -0.233124
     20 C                    -0.021084
     21 H                     0.141976
     22 C                    -0.149304
     23 C                    -0.282667
     24 C                     0.178474
     25 H                     0.084884
     26 O                    -0.506730
     27 C                     0.304118
     28 C                    -0.022078
     29 S                    -0.178067
     30 C                    -0.147818
     31 C                    -0.235298
     32 H                     0.110176
     33 H                     0.141711
     34 C                    -0.527216
     35 H                     0.231184
     36 H                     0.141804
     37 C                    -0.527031
     38 H                     0.231882
     39 H                     0.141737
     40 H                     0.067175
     41 H                     0.231691
     42 H                     0.230831
  ----------------------------------------
  Sum of atomic charges =     0.000000

                    Cartesian Multipole Moments
 -----------------------------------------------------------------
    Charge (ESU x 10^10)
                -0.0000
    Dipole Moment (Debye)
         X       0.0171      Y       0.0047      Z      -0.0313
       Tot       0.0359
    Quadrupole Moments (Debye-Ang)
        XX    -151.4778     XY     -49.3923     YY    -168.3743
        XZ      -0.2445     YZ      -0.1433     ZZ    -179.6413

 Total job time:  15183.81s(wall), 362526.38s(cpu)
        *  Thank you very much for using Q-Chem.  Have a nice day.  *
